TITLE     = "Particles in 3D"
VARIABLES = "X" "Y" "Z" "UP" "VP" "WP" "MASS" "WT" "WTD" "DPM" "XN" "YN" "ZN" "SRCNUM
ZONE T="     0.0 seconds"
I=         4, J=1, K=1,F=POINT
DT=(SINGLE SINGLE SINGLE SINGLE SINGLE SINGLE SINGLE SINGLE SINGLE SINGLE SINGLE SINGLE SINGLE SINGLE)
    37.834    55.927     0.768     0.256    -0.488    -0.170  0.2000E-01 1.0000000 1.0000000   0.000 99999.000 99999.000 99999.000        1.
   116.751   101.106     1.147    -0.986     0.530    -0.404  0.2000E-01 1.0000000 1.0000000   0.000 99999.000 99999.000 99999.000        2.
    62.081    95.880     0.989     0.366    -0.446     0.094  0.2000E-01 1.0000000 1.0000000   0.000 99999.000 99999.000 99999.000        3.
   108.991   109.553     1.973    -0.272     0.739    -0.326  0.2000E-01 1.0000000 1.0000000   0.000 99999.000 99999.000 99999.000        4.
ZONE T="     5.0 seconds"
I=      2000, J=1, K=1,F=POINT
DT=(SINGLE SINGLE SINGLE SINGLE SINGLE SINGLE SINGLE SINGLE SINGLE SINGLE SINGLE SINGLE SINGLE SINGLE)
    40.077    53.085     3.454     0.411     0.144     0.443  0.2000E-01 1.0000000 1.0000000   0.000 99999.000 99999.000 99999.000        1.
   126.879    52.102     1.717     0.366    -1.231     0.562  0.2000E-01 1.0000000 1.0000000   0.000 99999.000 99999.000 99999.000        1.
    67.501    44.709     2.598     0.914    -0.524     0.326  0.2000E-01 1.0000000 1.0000000   0.000 99999.000 99999.000 99999.000        1.
    95.318    50.261     0.407     0.183     0.373     0.004  0.2000E-01 1.0000000 1.0000000   0.000 99999.000 99999.000 99999.000        1.
   128.813    56.711     0.481     0.234    -0.089    -0.060  0.2000E-01 1.0000000 1.0000000   0.000 99999.000 99999.000 99999.000        1.
   122.803    49.283     2.436     0.137    -0.323    -0.067  0.2000E-01 1.0000000 1.0000000   0.000 99999.000 99999.000 99999.000        1.
    36.928    55.907     0.191     0.247     0.520    -0.152  0.2000E-01 1.0000000 1.0000000   0.000 99999.000 99999.000 99999.000        1.
    97.103    57.170     0.245    -0.296     1.170    -0.411  0.2000E-01 1.0000000 1.0000000   0.000 99999.000 99999.000 99999.000        1.
   121.671    51.072     0.508    -0.244    -1.194    -0.082  0.2000E-01 1.0000000 1.0000000   0.000 99999.000 99999.000 99999.000        1.
    92.156    50.308     0.614    -0.119    -0.745     0.160  0.2000E-01 1.0000000 1.0000000   0.000 99999.000 99999.000 99999.000        1.
   128.204    55.354     1.218    -0.013     0.140    -0.398  0.2000E-01 1.0000000 1.0000000   0.000 99999.000 99999.000 99999.000        1.
    91.791    50.901     1.156    -0.270    -1.016     0.586  0.2000E-01 1.0000000 1.0000000   0.000 99999.000 99999.000 99999.000        1.
    71.423    47.107     2.020    -0.109    -1.131     0.411  0.2000E-01 1.0000000 1.0000000   0.000 99999.000 99999.000 99999.000        1.
    56.622    49.795     2.028    -0.522     0.290    -0.036  0.2000E-01 1.0000000 1.0000000   0.000 99999.000 99999.000 99999.000        1.
   105.070    45.952     2.379     0.006    -0.431    -0.071  0.2000E-01 1.0000000 1.0000000   0.000 99999.000 99999.000 99999.000        1.
    72.694    50.684     0.579    -0.437    -0.078     0.447  0.2000E-01 1.0000000 1.0000000   0.000 99999.000 99999.000 99999.000        1.
    55.626    46.302     2.581    -0.159     0.020     0.409  0.2000E-01 1.0000000 1.0000000   0.000 99999.000 99999.000 99999.000        1.
   124.242    51.731     2.574    -0.747    -0.278    -0.345  0.2000E-01 1.0000000 1.0000000   0.000 99999.000 99999.000 99999.000        1.
   127.439    57.099     0.445    -0.100     0.410    -0.192  0.2000E-01 1.0000000 1.0000000   0.000 99999.000 99999.000 99999.000        1.
    86.893    57.940     1.654    -0.418     0.562    -0.203  0.2000E-01 1.0000000 1.0000000   0.000 99999.000 99999.000 99999.000        1.
    52.600    52.129     1.797    -0.577     0.995    -0.074  0.2000E-01 1.0000000 1.0000000   0.000 99999.000 99999.000 99999.000        1.
    62.433    44.218     2.342    -0.338    -0.349     0.541  0.2000E-01 1.0000000 1.0000000   0.000 99999.000 99999.000 99999.000        1.
    75.874    53.681     0.255    -0.202     0.937    -0.053  0.2000E-01 1.0000000 1.0000000   0.000 99999.000 99999.000 99999.000        1.
    86.815    48.474     6.557     0.253    -1.337     0.696  0.2000E-01 1.0000000 1.0000000   0.000 99999.000 99999.000 99999.000        1.
    96.227    50.988     3.922    -0.243     0.744     0.671  0.2000E-01 1.0000000 1.0000000   0.000 99999.000 99999.000 99999.000        1.
   101.998    48.509     1.684    -0.455    -0.659    -0.364  0.2000E-01 1.0000000 1.0000000   0.000 99999.000 99999.000 99999.000        1.
    50.457    52.378     1.087    -0.089     0.376    -0.177  0.2000E-01 1.0000000 1.0000000   0.000 99999.000 99999.000 99999.000        1.
    83.026    55.851     1.110     0.383     0.239    -0.165  0.2000E-01 1.0000000 1.0000000   0.000 99999.000 99999.000 99999.000        1.
   113.028    45.193     3.158     0.432    -0.498     0.165  0.2000E-01 1.0000000 1.0000000   0.000 99999.000 99999.000 99999.000        1.
    71.615    52.224     0.468    -0.331    -0.282     0.154  0.2000E-01 1.0000000 1.0000000   0.000 99999.000 99999.000 99999.000        1.
    52.943    51.032     1.482    -0.246    -0.488    -0.098  0.2000E-01 1.0000000 1.0000000   0.000 99999.000 99999.000 99999.000        1.
    97.932    51.939     0.288    -0.103     0.798     0.035  0.2000E-01 1.0000000 1.0000000   0.000 99999.000 99999.000 99999.000        1.
    87.102    58.177     1.978    -0.317     0.319     0.118  0.2000E-01 1.0000000 1.0000000   0.000 99999.000 99999.000 99999.000        1.
   124.349    55.165     0.209    -0.156    -0.678     0.045  0.2000E-01 1.0000000 1.0000000   0.000 99999.000 99999.000 99999.000        1.
    77.476    56.044     0.169     0.574    -0.051     0.335  0.2000E-01 1.0000000 1.0000000   0.000 99999.000 99999.000 99999.000        1.
   123.709    54.822     0.282    -0.482    -0.062    -0.351  0.2000E-01 1.0000000 1.0000000   0.000 99999.000 99999.000 99999.000        1.
    64.320    48.542     1.434    -0.054    -0.872     0.105  0.2000E-01 1.0000000 1.0000000   0.000 99999.000 99999.000 99999.000        1.
   123.154    56.586     0.692    -0.225     0.500    -0.169  0.2000E-01 1.0000000 1.0000000   0.000 99999.000 99999.000 99999.000        1.
    73.596    47.636     1.109    -0.512    -0.725    -0.090  0.2000E-01 1.0000000 1.0000000   0.000 99999.000 99999.000 99999.000        1.
    93.822    52.454     1.272     0.060     0.765    -0.062  0.2000E-01 1.0000000 1.0000000   0.000 99999.000 99999.000 99999.000        1.
    70.275    50.135     2.364     0.141     0.354     0.367  0.2000E-01 1.0000000 1.0000000   0.000 99999.000 99999.000 99999.000        1.
   107.496    46.973     2.821    -0.552    -0.068    -0.270  0.2000E-01 1.0000000 1.0000000   0.000 99999.000 99999.000 99999.000        1.
   115.413    48.852     2.114    -0.140     0.328    -0.088  0.2000E-01 1.0000000 1.0000000   0.000 99999.000 99999.000 99999.000        1.
    92.011    48.733     3.302    -0.827     0.381     0.161  0.2000E-01 1.0000000 1.0000000   0.000 99999.000 99999.000 99999.000        1.
   102.754    52.509     1.441     0.127    -0.081    -0.379  0.2000E-01 1.0000000 1.0000000   0.000 99999.000 99999.000 99999.000        1.
    55.661    55.235     0.424     0.117     0.561     0.295  0.2000E-01 1.0000000 1.0000000   0.000 99999.000 99999.000 99999.000        1.
    98.876    49.511     0.751     0.404    -0.953    -0.063  0.2000E-01 1.0000000 1.0000000   0.000 99999.000 99999.000 99999.000        1.
   131.378    55.831     0.569    -0.102    -0.398    -0.048  0.2000E-01 1.0000000 1.0000000   0.000 99999.000 99999.000 99999.000        1.
    90.988    54.517     0.942    -0.230    -0.451     0.144  0.2000E-01 1.0000000 1.0000000   0.000 99999.000 99999.000 99999.000        1.
    91.884    51.611     0.685     0.692    -0.298    -0.240  0.2000E-01 1.0000000 1.0000000   0.000 99999.000 99999.000 99999.000        1.
    99.828    49.746     2.437    -0.204    -0.632     0.127  0.2000E-01 1.0000000 1.0000000   0.000 99999.000 99999.000 99999.000        1.
   136.342    58.769     0.223     0.926     0.353    -0.153  0.2000E-01 1.0000000 1.0000000   0.000 99999.000 99999.000 99999.000        1.
   105.575    45.756     3.303     0.239     0.113     0.505  0.2000E-01 1.0000000 1.0000000   0.000 99999.000 99999.000 99999.000        1.
   107.195    52.207     3.014     0.697    -0.011     0.295  0.2000E-01 1.0000000 1.0000000   0.000 99999.000 99999.000 99999.000        1.
   108.924    60.119     0.483     0.099    -0.078    -0.068  0.2000E-01 1.0000000 1.0000000   0.000 99999.000 99999.000 99999.000        1.
    45.743    56.627     0.124     0.882     0.004    -0.030  0.2000E-01 1.0000000 1.0000000   0.000 99999.000 99999.000 99999.000        1.
    97.592    53.763     0.979    -0.130    -0.006    -0.025  0.2000E-01 1.0000000 1.0000000   0.000 99999.000 99999.000 99999.000        1.
    40.537    53.896     2.799    -0.699    -0.567     0.737  0.2000E-01 1.0000000 1.0000000   0.000 99999.000 99999.000 99999.000        1.
    52.898    48.854     1.821    -0.273    -0.307     0.129  0.2000E-01 1.0000000 1.0000000   0.000 99999.000 99999.000 99999.000        1.
    58.003    48.508     1.520     0.902    -0.831    -0.235  0.2000E-01 1.0000000 1.0000000   0.000 99999.000 99999.000 99999.000        1.
    83.721    53.924     0.699    -0.282    -0.317    -0.488  0.2000E-01 1.0000000 1.0000000   0.000 99999.000 99999.000 99999.000        1.
   111.215    53.736     0.439    -0.047    -0.108    -0.154  0.2000E-01 1.0000000 1.0000000   0.000 99999.000 99999.000 99999.000        1.
    66.168    51.489     0.626    -0.483     0.189    -0.006  0.2000E-01 1.0000000 1.0000000   0.000 99999.000 99999.000 99999.000        1.
    90.467    55.072     1.762    -0.564     0.261     0.760  0.2000E-01 1.0000000 1.0000000   0.000 99999.000 99999.000 99999.000        1.
    56.715    47.631     2.405     0.638    -0.170     0.098  0.2000E-01 1.0000000 1.0000000   0.000 99999.000 99999.000 99999.000        1.
   115.315    54.585     0.308     0.171     0.163    -0.012  0.2000E-01 1.0000000 1.0000000   0.000 99999.000 99999.000 99999.000        1.
   106.762    54.649     1.402     0.318     1.499    -0.330  0.2000E-01 1.0000000 1.0000000   0.000 99999.000 99999.000 99999.000        1.
    69.837    50.812     1.886    -0.637    -0.176     0.232  0.2000E-01 1.0000000 1.0000000   0.000 99999.000 99999.000 99999.000        1.
    60.917    55.453     0.668     0.373    -0.137     0.401  0.2000E-01 1.0000000 1.0000000   0.000 99999.000 99999.000 99999.000        1.
    45.191    59.017     0.939     0.564     1.289    -0.516  0.2000E-01 1.0000000 1.0000000   0.000 99999.000 99999.000 99999.000        1.
    75.191    46.387     3.525     0.228    -0.241     0.506  0.2000E-01 1.0000000 1.0000000   0.000 99999.000 99999.000 99999.000        1.
    58.389    54.107     0.433     0.425     0.634     0.004  0.2000E-01 1.0000000 1.0000000   0.000 99999.000 99999.000 99999.000        1.
    57.534    55.138     0.388    -0.150     0.382     0.362  0.2000E-01 1.0000000 1.0000000   0.000 99999.000 99999.000 99999.000        1.
    43.075    54.851     0.755    -0.397     0.833     0.914  0.2000E-01 1.0000000 1.0000000   0.000 99999.000 99999.000 99999.000        1.
   104.777    54.570     0.238    -0.630    -0.364    -0.217  0.2000E-01 1.0000000 1.0000000   0.000 99999.000 99999.000 99999.000        1.
    64.870    52.900     0.199     0.082     0.654     0.360  0.2000E-01 1.0000000 1.0000000   0.000 99999.000 99999.000 99999.000        1.
    94.832    52.255     0.578    -1.097    -0.341    -0.254  0.2000E-01 1.0000000 1.0000000   0.000 99999.000 99999.000 99999.000        1.
   121.503    56.611     0.141    -1.166     0.590     0.210  0.2000E-01 1.0000000 1.0000000   0.000 99999.000 99999.000 99999.000        1.
    74.699    45.765     2.095     0.158    -1.003     0.344  0.2000E-01 1.0000000 1.0000000   0.000 99999.000 99999.000 99999.000        1.
    91.398    48.279     3.304    -0.621    -1.021     0.353  0.2000E-01 1.0000000 1.0000000   0.000 99999.000 99999.000 99999.000        1.
    72.233    54.792     0.337     0.230     0.154     0.065  0.2000E-01 1.0000000 1.0000000   0.000 99999.000 99999.000 99999.000        1.
   116.847    54.605     1.334     0.208     0.744     0.056  0.2000E-01 1.0000000 1.0000000   0.000 99999.000 99999.000 99999.000        1.
    50.838    50.134     3.283    -0.452     0.125     0.644  0.2000E-01 1.0000000 1.0000000   0.000 99999.000 99999.000 99999.000        1.
    50.531    46.435     1.474    -0.097    -1.058     0.355  0.2000E-01 1.0000000 1.0000000   0.000 99999.000 99999.000 99999.000        1.
   131.882    56.990     1.119    -0.203     0.260    -0.323  0.2000E-01 1.0000000 1.0000000   0.000 99999.000 99999.000 99999.000        1.
    38.221    54.086     1.086    -0.129    -0.457    -0.250  0.2000E-01 1.0000000 1.0000000   0.000 99999.000 99999.000 99999.000        1.
   109.452    51.778     1.497     0.247    -0.155     0.786  0.2000E-01 1.0000000 1.0000000   0.000 99999.000 99999.000 99999.000        1.
    56.644    55.064     0.290    -0.617     1.080     0.009  0.2000E-01 1.0000000 1.0000000   0.000 99999.000 99999.000 99999.000        1.
    78.180    55.883     0.720    -0.320     1.286    -0.209  0.2000E-01 1.0000000 1.0000000   0.000 99999.000 99999.000 99999.000        1.
   103.320    52.393     2.070     0.748     0.749    -0.053  0.2000E-01 1.0000000 1.0000000   0.000 99999.000 99999.000 99999.000        1.
   111.503    49.267     1.359    -0.281    -1.238     0.241  0.2000E-01 1.0000000 1.0000000   0.000 99999.000 99999.000 99999.000        1.
    69.420    48.851     1.660    -0.218    -1.220     0.076  0.2000E-01 1.0000000 1.0000000   0.000 99999.000 99999.000 99999.000        1.
    78.341    51.275     0.635    -0.350     0.165     0.156  0.2000E-01 1.0000000 1.0000000   0.000 99999.000 99999.000 99999.000        1.
    81.045    46.570     1.311     0.157    -0.421     0.700  0.2000E-01 1.0000000 1.0000000   0.000 99999.000 99999.000 99999.000        1.
    56.956    52.891     0.331    -0.524    -0.349     0.032  0.2000E-01 1.0000000 1.0000000   0.000 99999.000 99999.000 99999.000        1.
   120.396    51.340     0.659     0.195    -0.278    -0.293  0.2000E-01 1.0000000 1.0000000   0.000 99999.000 99999.000 99999.000        1.
    37.867    57.495     0.869     0.533     0.729     0.964  0.2000E-01 1.0000000 1.0000000   0.000 99999.000 99999.000 99999.000        1.
    41.664    59.645     0.586     0.128     0.705     0.045  0.2000E-01 1.0000000 1.0000000   0.000 99999.000 99999.000 99999.000        1.
    48.321    54.379     0.586    -0.688     0.045    -0.140  0.2000E-01 1.0000000 1.0000000   0.000 99999.000 99999.000 99999.000        1.
    38.040    60.971     0.868    -0.441     1.005    -0.285  0.2000E-01 1.0000000 1.0000000   0.000 99999.000 99999.000 99999.000        1.
   121.410    52.831     1.443    -0.443     0.392    -0.146  0.2000E-01 1.0000000 1.0000000   0.000 99999.000 99999.000 99999.000        1.
    48.101    49.842     1.109     0.108    -0.114    -0.097  0.2000E-01 1.0000000 1.0000000   0.000 99999.000 99999.000 99999.000        1.
    54.750    49.597     1.672     0.184     0.574     0.175  0.2000E-01 1.0000000 1.0000000   0.000 99999.000 99999.000 99999.000        1.
    69.833    53.540     0.602    -0.649    -0.212    -0.332  0.2000E-01 1.0000000 1.0000000   0.000 99999.000 99999.000 99999.000        1.
    52.536    51.219     1.448     0.363     0.351     0.002  0.2000E-01 1.0000000 1.0000000   0.000 99999.000 99999.000 99999.000        1.
   118.188    50.078     0.965     0.524     0.151    -0.108  0.2000E-01 1.0000000 1.0000000   0.000 99999.000 99999.000 99999.000        1.
    38.185    56.187     0.489     0.045    -0.499    -0.452  0.2000E-01 1.0000000 1.0000000   0.000 99999.000 99999.000 99999.000        1.
   126.042    57.043     0.180     1.070    -0.994     0.448  0.2000E-01 1.0000000 1.0000000   0.000 99999.000 99999.000 99999.000        1.
    57.543    53.055     1.148     0.483     0.066     0.566  0.2000E-01 1.0000000 1.0000000   0.000 99999.000 99999.000 99999.000        1.
    84.388    59.121     1.478    -0.173    -0.172     0.210  0.2000E-01 1.0000000 1.0000000   0.000 99999.000 99999.000 99999.000        1.
    40.060    55.543     2.572     0.626    -0.470     0.228  0.2000E-01 1.0000000 1.0000000   0.000 99999.000 99999.000 99999.000        1.
   115.949    51.218     2.504     0.529     0.089     0.387  0.2000E-01 1.0000000 1.0000000   0.000 99999.000 99999.000 99999.000        1.
    37.127    59.289     0.550     0.045     0.489    -0.253  0.2000E-01 1.0000000 1.0000000   0.000 99999.000 99999.000 99999.000        1.
    42.074    58.556     2.620     0.208     0.024     0.292  0.2000E-01 1.0000000 1.0000000   0.000 99999.000 99999.000 99999.000        1.
   123.443    53.434     1.416    -0.265     0.097    -0.031  0.2000E-01 1.0000000 1.0000000   0.000 99999.000 99999.000 99999.000        1.
    74.822    50.847     1.215     0.288     0.351     0.358  0.2000E-01 1.0000000 1.0000000   0.000 99999.000 99999.000 99999.000        1.
   100.104    56.867     0.301     0.171    -0.383     0.380  0.2000E-01 1.0000000 1.0000000   0.000 99999.000 99999.000 99999.000        1.
    92.391    51.609     0.232    -0.640     0.206    -0.255  0.2000E-01 1.0000000 1.0000000   0.000 99999.000 99999.000 99999.000        1.
    83.489    57.110     1.411     0.411    -0.167    -0.253  0.2000E-01 1.0000000 1.0000000   0.000 99999.000 99999.000 99999.000        1.
   117.112    49.328     2.119     0.704     0.208    -0.185  0.2000E-01 1.0000000 1.0000000   0.000 99999.000 99999.000 99999.000        1.
    40.702    52.981     3.564    -0.329    -0.485     0.374  0.2000E-01 1.0000000 1.0000000   0.000 99999.000 99999.000 99999.000        1.
   133.484    57.078     0.511    -0.615     0.296     0.113  0.2000E-01 1.0000000 1.0000000   0.000 99999.000 99999.000 99999.000        1.
   116.092    50.854     3.457     0.092    -0.418     0.535  0.2000E-01 1.0000000 1.0000000   0.000 99999.000 99999.000 99999.000        1.
    40.483    56.173     1.839    -0.282     0.126    -0.177  0.2000E-01 1.0000000 1.0000000   0.000 99999.000 99999.000 99999.000        1.
    58.508    54.632     1.539     0.641    -0.814     0.583  0.2000E-01 1.0000000 1.0000000   0.000 99999.000 99999.000 99999.000        1.
    66.941    52.008     1.712     0.435     0.277    -0.485  0.2000E-01 1.0000000 1.0000000   0.000 99999.000 99999.000 99999.000        1.
   119.083    56.170     2.983     0.861     0.820     0.220  0.2000E-01 1.0000000 1.0000000   0.000 99999.000 99999.000 99999.000        1.
    79.079    52.801     0.969     0.112     0.239     0.197  0.2000E-01 1.0000000 1.0000000   0.000 99999.000 99999.000 99999.000        1.
    57.966    48.294     2.352    -0.309    -0.557     0.714  0.2000E-01 1.0000000 1.0000000   0.000 99999.000 99999.000 99999.000        1.
    38.175    54.963     0.374     0.115    -0.297    -0.010  0.2000E-01 1.0000000 1.0000000   0.000 99999.000 99999.000 99999.000        1.
    47.268    51.422     0.660     0.598     0.682    -0.107  0.2000E-01 1.0000000 1.0000000   0.000 99999.000 99999.000 99999.000        1.
    95.041    52.051     0.974    -0.034    -0.501    -0.210  0.2000E-01 1.0000000 1.0000000   0.000 99999.000 99999.000 99999.000        1.
   100.013    52.826     1.312     0.254     0.040    -0.060  0.2000E-01 1.0000000 1.0000000   0.000 99999.000 99999.000 99999.000        1.
    69.598    52.664     0.800     0.676     0.591    -0.204  0.2000E-01 1.0000000 1.0000000   0.000 99999.000 99999.000 99999.000        1.
    99.003    54.607     0.957     0.165     0.759     0.013  0.2000E-01 1.0000000 1.0000000   0.000 99999.000 99999.000 99999.000        1.
    71.575    50.960     1.246    -0.331     0.508     0.101  0.2000E-01 1.0000000 1.0000000   0.000 99999.000 99999.000 99999.000        1.
    41.033    60.413     2.030     0.394     0.334    -0.082  0.2000E-01 1.0000000 1.0000000   0.000 99999.000 99999.000 99999.000        1.
    91.550    52.973     1.469    -0.021    -0.062     0.341  0.2000E-01 1.0000000 1.0000000   0.000 99999.000 99999.000 99999.000        1.
    82.531    50.197     2.264     0.071    -0.775     0.112  0.2000E-01 1.0000000 1.0000000   0.000 99999.000 99999.000 99999.000        1.
    92.361    55.444     2.021    -0.623     0.750    -0.093  0.2000E-01 1.0000000 1.0000000   0.000 99999.000 99999.000 99999.000        1.
   132.072    57.243     0.521     0.211    -0.356     0.505  0.2000E-01 1.0000000 1.0000000   0.000 99999.000 99999.000 99999.000        1.
    40.630    58.754     2.962    -0.059    -0.009     0.177  0.2000E-01 1.0000000 1.0000000   0.000 99999.000 99999.000 99999.000        1.
    38.599    58.562     0.243     0.047    -0.364     0.479  0.2000E-01 1.0000000 1.0000000   0.000 99999.000 99999.000 99999.000        1.
   122.928    51.285     1.839     0.511    -0.025     0.239  0.2000E-01 1.0000000 1.0000000   0.000 99999.000 99999.000 99999.000        1.
    36.372    57.161     0.131    -0.323     0.202     0.700  0.2000E-01 1.0000000 1.0000000   0.000 99999.000 99999.000 99999.000        1.
    90.277    55.038     0.642     0.383    -0.518     0.632  0.2000E-01 1.0000000 1.0000000   0.000 99999.000 99999.000 99999.000        1.
   127.582    56.365     0.467     0.009    -0.014     0.166  0.2000E-01 1.0000000 1.0000000   0.000 99999.000 99999.000 99999.000        1.
   112.320    55.076     1.620     0.079     0.137    -0.073  0.2000E-01 1.0000000 1.0000000   0.000 99999.000 99999.000 99999.000        1.
    84.243    60.524     2.522    -0.412     0.229     0.094  0.2000E-01 1.0000000 1.0000000   0.000 99999.000 99999.000 99999.000        1.
    47.628    49.137     1.610     0.493    -0.397     0.286  0.2000E-01 1.0000000 1.0000000   0.000 99999.000 99999.000 99999.000        1.
   100.149    52.442     0.261     0.090     1.055    -0.534  0.2000E-01 1.0000000 1.0000000   0.000 99999.000 99999.000 99999.000        1.
   108.179    52.327     1.786     0.400     0.296    -0.046  0.2000E-01 1.0000000 1.0000000   0.000 99999.000 99999.000 99999.000        1.
   126.800    56.974     1.539    -0.153    -0.968    -0.535  0.2000E-01 1.0000000 1.0000000   0.000 99999.000 99999.000 99999.000        1.
    72.652    54.861     1.871    -0.212     0.748     0.370  0.2000E-01 1.0000000 1.0000000   0.000 99999.000 99999.000 99999.000        1.
    69.520    52.618     1.785     0.283    -0.478     0.082  0.2000E-01 1.0000000 1.0000000   0.000 99999.000 99999.000 99999.000        1.
    83.757    56.862     2.906    -0.649    -0.099     0.320  0.2000E-01 1.0000000 1.0000000   0.000 99999.000 99999.000 99999.000        1.
    51.577    52.633     1.301    -0.464    -0.628     0.730  0.2000E-01 1.0000000 1.0000000   0.000 99999.000 99999.000 99999.000        1.
    67.549    53.213     1.426     0.327    -0.448     0.352  0.2000E-01 1.0000000 1.0000000   0.000 99999.000 99999.000 99999.000        1.
    85.028    54.893     1.435     0.300    -0.482     0.041  0.2000E-01 1.0000000 1.0000000   0.000 99999.000 99999.000 99999.000        1.
   107.177    52.720     1.102     0.779     0.397    -0.017  0.2000E-01 1.0000000 1.0000000   0.000 99999.000 99999.000 99999.000        1.
    40.922    61.016     3.780    -0.145     1.038     0.626  0.2000E-01 1.0000000 1.0000000   0.000 99999.000 99999.000 99999.000        1.
   122.301    54.666     0.973    -0.393     0.485    -0.195  0.2000E-01 1.0000000 1.0000000   0.000 99999.000 99999.000 99999.000        1.
   100.768    49.665     1.741     0.045     0.231     0.089  0.2000E-01 1.0000000 1.0000000   0.000 99999.000 99999.000 99999.000        1.
   108.641    50.597     1.858     0.804     0.608     0.141  0.2000E-01 1.0000000 1.0000000   0.000 99999.000 99999.000 99999.000        1.
   105.349    52.466     1.319     0.332    -0.195     0.173  0.2000E-01 1.0000000 1.0000000   0.000 99999.000 99999.000 99999.000        1.
    44.790    57.092     0.320     0.269     0.705     0.754  0.2000E-01 1.0000000 1.0000000   0.000 99999.000 99999.000 99999.000        1.
    44.882    50.864     2.463     0.714    -1.954     0.209  0.2000E-01 1.0000000 1.0000000   0.000 99999.000 99999.000 99999.000        1.
   101.449    55.834     0.510    -0.569    -0.406     0.146  0.2000E-01 1.0000000 1.0000000   0.000 99999.000 99999.000 99999.000        1.
    72.658    50.239     0.980    -0.412    -0.095     0.271  0.2000E-01 1.0000000 1.0000000   0.000 99999.000 99999.000 99999.000        1.
    40.590    54.653     1.855     0.534    -0.741     0.370  0.2000E-01 1.0000000 1.0000000   0.000 99999.000 99999.000 99999.000        1.
    91.414    52.498     1.722     0.088    -0.647     0.233  0.2000E-01 1.0000000 1.0000000   0.000 99999.000 99999.000 99999.000        1.
    81.697    46.078     5.768    -0.104    -2.813     0.536  0.2000E-01 1.0000000 1.0000000   0.000 99999.000 99999.000 99999.000        1.
   104.992    50.262     1.056     0.009    -0.099    -0.114  0.2000E-01 1.0000000 1.0000000   0.000 99999.000 99999.000 99999.000        1.
    65.025    48.001     1.887     0.837    -1.415     0.059  0.2000E-01 1.0000000 1.0000000   0.000 99999.000 99999.000 99999.000        1.
    73.370    50.656     0.816    -0.842     0.042    -0.421  0.2000E-01 1.0000000 1.0000000   0.000 99999.000 99999.000 99999.000        1.
    46.301    49.097     0.938     0.222    -1.381    -0.317  0.2000E-01 1.0000000 1.0000000   0.000 99999.000 99999.000 99999.000        1.
   102.536    52.431     2.606     0.949     0.686     0.350  0.2000E-01 1.0000000 1.0000000   0.000 99999.000 99999.000 99999.000        1.
   116.242    52.387     0.939     0.285     0.942    -0.383  0.2000E-01 1.0000000 1.0000000   0.000 99999.000 99999.000 99999.000        1.
    82.429    54.052     2.407    -0.248    -0.484     0.665  0.2000E-01 1.0000000 1.0000000   0.000 99999.000 99999.000 99999.000        1.
    58.181    56.359     0.902    -0.233     0.637    -0.379  0.2000E-01 1.0000000 1.0000000   0.000 99999.000 99999.000 99999.000        1.
   113.244    47.922     2.748    -0.228    -0.558     0.106  0.2000E-01 1.0000000 1.0000000   0.000 99999.000 99999.000 99999.000        1.
    77.621    51.717     1.016    -0.662    -0.674     0.444  0.2000E-01 1.0000000 1.0000000   0.000 99999.000 99999.000 99999.000        1.
   117.087    53.634     0.619     0.804     0.553    -0.344  0.2000E-01 1.0000000 1.0000000   0.000 99999.000 99999.000 99999.000        1.
    77.276    55.512     0.533    -0.204    -0.099    -0.360  0.2000E-01 1.0000000 1.0000000   0.000 99999.000 99999.000 99999.000        1.
   134.907    55.608     0.628    -0.232    -0.376    -0.050  0.2000E-01 1.0000000 1.0000000   0.000 99999.000 99999.000 99999.000        1.
    52.691    51.409     0.632    -0.155    -0.301    -0.232  0.2000E-01 1.0000000 1.0000000   0.000 99999.000 99999.000 99999.000        1.
    40.306    55.149     2.034     0.204    -0.596     0.187  0.2000E-01 1.0000000 1.0000000   0.000 99999.000 99999.000 99999.000        1.
   114.258    58.969     0.243     0.381     1.369    -0.029  0.2000E-01 1.0000000 1.0000000   0.000 99999.000 99999.000 99999.000        1.
   112.694    52.665     1.335    -0.541     0.832    -0.124  0.2000E-01 1.0000000 1.0000000   0.000 99999.000 99999.000 99999.000        1.
   119.257    50.042     1.816     0.278    -0.567     0.199  0.2000E-01 1.0000000 1.0000000   0.000 99999.000 99999.000 99999.000        1.
    69.916    48.876     2.054     0.479    -0.525     0.204  0.2000E-01 1.0000000 1.0000000   0.000 99999.000 99999.000 99999.000        1.
   117.075    48.441     4.391    -0.602    -0.475     0.577  0.2000E-01 1.0000000 1.0000000   0.000 99999.000 99999.000 99999.000        1.
    70.569    50.875     0.959    -0.061     0.224     0.083  0.2000E-01 1.0000000 1.0000000   0.000 99999.000 99999.000 99999.000        1.
   121.102    53.130     1.988     0.477    -0.644     0.448  0.2000E-01 1.0000000 1.0000000   0.000 99999.000 99999.000 99999.000        1.
    70.902    53.866     1.089    -0.056    -0.314     0.400  0.2000E-01 1.0000000 1.0000000   0.000 99999.000 99999.000 99999.000        1.
    70.502    58.320     0.465    -0.202     0.687    -0.004  0.2000E-01 1.0000000 1.0000000   0.000 99999.000 99999.000 99999.000        1.
    48.767    52.071     2.196    -0.376     0.756     0.283  0.2000E-01 1.0000000 1.0000000   0.000 99999.000 99999.000 99999.000        1.
    95.808    51.932     0.514     0.666     1.157     0.140  0.2000E-01 1.0000000 1.0000000   0.000 99999.000 99999.000 99999.000        1.
   122.335    56.633     0.648    -0.466     0.806     0.035  0.2000E-01 1.0000000 1.0000000   0.000 99999.000 99999.000 99999.000        1.
    79.671    54.960     1.645    -0.565     0.298     0.545  0.2000E-01 1.0000000 1.0000000   0.000 99999.000 99999.000 99999.000        1.
    54.904    49.932     2.571    -0.289    -0.143    -0.134  0.2000E-01 1.0000000 1.0000000   0.000 99999.000 99999.000 99999.000        1.
   114.950    52.054     1.299    -0.012     0.100    -0.187  0.2000E-01 1.0000000 1.0000000   0.000 99999.000 99999.000 99999.000        1.
   103.759    55.173     2.351     0.588     0.622    -0.344  0.2000E-01 1.0000000 1.0000000   0.000 99999.000 99999.000 99999.000        1.
    40.611    58.878     1.173    -0.187     0.738    -0.001  0.2000E-01 1.0000000 1.0000000   0.000 99999.000 99999.000 99999.000        1.
    56.995    54.715     1.852    -0.121    -0.506     0.845  0.2000E-01 1.0000000 1.0000000   0.000 99999.000 99999.000 99999.000        1.